#     Step Nr.          Time[fs]        Kin.[a.u.]          Temp[K]            Pot.[a.u.]        Cons Qty[a.u.]        UsedTime[s]
         0            0.000000         0.074103479       400.000000000      -254.537481375      -254.389274417         0.000000000
         1            2.000000         0.061863226       333.928860914      -254.522511947      -254.386554135       956.480259555
         2            4.000000         0.045524368       245.734036771      -254.506607394      -254.386987174       403.341563078
         3            6.000000         0.030809771       166.306745702      -254.491351734      -254.386436148       386.111795357
         4            8.000000         0.025685384       138.646033427      -254.485001560      -254.385197256       369.940864400
         5           10.000000         0.036994575       199.691434411      -254.499119314      -254.388001132       369.217235027
         6           12.000000         0.041636177       224.746137652      -254.502166029      -254.386416781       368.363891860
         7           14.000000         0.046087833       248.775544665      -254.507716463      -254.387539848       368.647415901
         8           16.000000         0.044346626       239.376757300      -254.505902981      -254.387497062       385.381979400
         9           18.000000         0.038135818       205.851702553      -254.497783983      -254.385606259       385.257187983
        10           20.000000         0.042290268       228.276829417      -254.504229038      -254.387897445       369.176149957
        11           22.000000         0.040706872       219.729884222      -254.501196546      -254.386440736       369.747995040
        12           24.000000         0.040842204       220.460385924      -254.501999191      -254.387100011       404.873985319
        13           26.000000         0.040300535       217.536534423      -254.501779483      -254.387417330       403.331408958
        14           28.000000         0.037034352       199.906145048      -254.496817526      -254.385720138       369.531995350
        15           30.000000         0.043149858       232.916771359      -254.505176061      -254.387968231       334.364329913
        16           32.000000         0.041964354       226.517592853      -254.502696897      -254.386685768       355.826823797
        17           34.000000         0.040465931       218.429317806      -254.501491642      -254.386992795       389.623818357
        18           36.000000         0.038969032       210.349268806      -254.500425471      -254.387441862       394.024515863
        19           38.000000         0.034834364       188.030921806      -254.494499522      -254.385671957       392.506158687
        20           40.000000         0.041497354       223.996789689      -254.503242585      -254.387772960       407.126549295
        21           42.000000         0.042646651       230.200531197      -254.503521970      -254.386920047       413.183166176
        22           44.000000         0.041768954       225.462850898      -254.502659731      -254.386947957       368.825348983
        23           46.000000         0.040052383       216.197047240      -254.501696743      -254.387711375       432.152025751
        24           48.000000         0.032425854       175.030132493      -254.492097190      -254.385744150       428.547878118
        25           50.000000         0.035571187       192.008188138      -254.496799737      -254.387309757       348.638480115
        26           52.000000         0.038921687       210.093711585      -254.499632644      -254.386808228       408.807188513
        27           54.000000         0.043716015       235.972809492      -254.504482689      -254.386880747       407.975703872
        28           56.000000         0.048020707       259.208921883      -254.510015279      -254.388121157       426.991258321
        29           58.000000         0.041671882       224.938870659      -254.501698508      -254.386158162       428.588990143
        30           60.000000         0.041262868       222.731070614      -254.502531463      -254.387398576       431.572987139
        31           62.000000         0.039331839       212.307651273      -254.500127493      -254.386920095       415.010356318
        32           64.000000         0.039885465       215.296044868      -254.500152288      -254.386383564       446.059461036
        33           66.000000         0.045788528       247.159939369      -254.507739810      -254.388064579       469.340093463
        34           68.000000         0.042165765       227.604781881      -254.502463947      -254.386411414       426.769696681
        35           70.000000         0.041820353       225.740292715      -254.503058159      -254.387352101       424.996070193
        36           72.000000         0.038657737       208.668943814      -254.499795431      -254.387256536       445.676132458
        37           74.000000         0.034390634       185.635733919      -254.494293327      -254.386030010       408.440766807
        38           76.000000         0.037823613       204.166462221      -254.499378317      -254.387694371       391.284061471
        39           78.000000         0.036608483       197.607362043      -254.496764249      -254.386305596       390.740952532
        40           80.000000         0.040638105       219.358687777      -254.501675882      -254.387193213       389.962935837
        41           82.000000         0.043005358       232.136781164      -254.504319532      -254.387475008       445.161496602
        42           84.000000         0.041918512       226.270142682      -254.502003124      -254.386252892       413.093480889
        43           86.000000         0.044757535       241.594782517      -254.506626250      -254.388050971       405.631036282
        44           88.000000         0.038586380       208.283769629      -254.498829859      -254.386441718       412.770954189
        45           90.000000         0.036827183       198.787878232      -254.497523974      -254.386903606       372.774503282
        46           92.000000         0.037122601       200.382499156      -254.498294304      -254.387377474       366.740616115
        47           94.000000         0.036902033       199.191903477      -254.496635128      -254.385931269       372.782201522
        48           96.000000         0.044361569       239.457418323      -254.506167497      -254.388002998       428.847970497
        49           98.000000         0.043447595       234.523916077      -254.503838916      -254.386600243       429.616070563
        50          100.000000         0.044498462       240.196343166      -254.505342667      -254.387071507       431.690267890
        51          102.000000         0.043448193       234.527145361      -254.505043625      -254.387838114       415.610259984
        52          104.000000         0.035673997       192.563144920      -254.495106174      -254.385679678       426.763401403
        53          106.000000         0.037465763       202.234840697      -254.498771963      -254.387552899       432.785804350
        54          108.000000         0.036580319       197.455339218      -254.496847557      -254.386512339       426.985648396
        55          110.000000         0.040684467       219.608945167      -254.501093347      -254.386655842       428.822451418
        56          112.000000         0.046456094       250.763360860      -254.508293632      -254.388097901       430.801435705
        57          114.000000         0.042258503       228.105363300      -254.501991370      -254.386010844       411.657756121
        58          116.000000         0.043111685       232.710722213      -254.504348695      -254.387525971       385.409825129
        59          118.000000         0.040324932       217.668227805      -254.500829210      -254.386796523       405.792493105
        60          120.000000         0.040526279       218.755068725      -254.500553542      -254.386322272       408.381279753
        61          122.000000         0.045163628       243.786814756      -254.506813208      -254.387955760       392.060949187
        62          124.000000         0.042123341       227.375780681      -254.501738397      -254.385935604       373.388646577
        63          126.000000         0.045057291       243.212823245      -254.506231221      -254.387509642       393.900950608
        64          128.000000         0.043708653       235.933069268      -254.504480803      -254.387126647       429.112826558
        65          130.000000         0.041312692       223.000011255      -254.501119793      -254.386179427       428.973851761
        66          132.000000         0.043174141       233.047849486      -254.504732219      -254.387946866       411.899042201
        67          134.000000         0.037054619       200.015545728      -254.496648704      -254.385995965       431.559410997
        68          136.000000         0.036563604       197.365114669      -254.497333125      -254.387178594       426.501909105
        69          138.000000         0.035247574       190.261374016      -254.495876754      -254.387039702       432.424658953
        70          140.000000         0.034129821       184.227903464      -254.493615334      -254.385892651       432.887462136
        71          142.000000         0.040248845       217.257518041      -254.501620842      -254.387779089       406.284772812
        72          144.000000         0.039940905       215.595302414      -254.499889272      -254.386358381       424.360929359
        73          146.000000         0.041288572       222.869815333      -254.502154735      -254.387275715       427.471933103
        74          148.000000         0.039125264       211.192587796      -254.499990198      -254.387270783       426.662593045
        75          150.000000         0.034093510       184.031901753      -254.493650373      -254.385959024       426.405147356
        76          152.000000         0.035937539       193.985702849      -254.497108852      -254.387577999       390.995323891
        77          154.000000         0.034398454       185.677942052      -254.494186412      -254.386209239       373.320482421
        78          156.000000         0.037879898       204.470279004      -254.498505126      -254.387068451       371.915413816
        79          158.000000         0.041425923       223.611215398      -254.502218566      -254.387262191       430.316981448
        80          160.000000         0.042055623       227.010248197      -254.501890905      -254.386329088       410.101957439
        81          162.000000         0.044687440       241.216423041      -254.506178951      -254.388007333       413.076848698
        82          164.000000         0.037543050       202.652023201      -254.497543315      -254.386535781       406.171602058
        83          166.000000         0.031572370       170.423145012      -254.491882372      -254.386862832       410.281399449
        84          168.000000         0.027866486       150.419314333      -254.488210019      -254.386911105       413.431986849
        85          170.000000         0.026932278       145.376593984      -254.486064154      -254.385707910       391.113197713
        86          172.000000         0.037603938       202.980688205      -254.498523739      -254.387505541       387.695006078
        87          174.000000         0.045198156       243.973195283      -254.505399651      -254.386805360       406.047524152
        88          176.000000         0.051719050       279.172050370      -254.512368187      -254.387277049       409.211078096
        89          178.000000         0.053373119       288.100476302      -254.514489742      -254.387770057       409.415480490
        90          180.000000         0.045843084       247.454423170      -254.505466417      -254.386299147       448.064792361
        91          182.000000         0.041886027       226.094791145      -254.502463015      -254.387275500       410.065784212
        92          184.000000         0.037129927       200.422047399      -254.496775304      -254.386368566       427.250203083
        93          186.000000         0.038327147       206.884467168      -254.498311329      -254.386732371       414.120577611
        94          188.000000         0.042026208       226.851468311      -254.502850460      -254.387595955       405.392950517
        95          190.000000         0.039765015       214.645875839      -254.499325804      -254.386344516       411.379056000
        96          192.000000         0.040667257       219.516048307      -254.501371780      -254.387487850       431.270601330
        97          194.000000         0.037612175       203.025148755      -254.497470688      -254.386639832       369.614922268
        98          196.000000         0.037308004       201.383279754      -254.497139492      -254.386618383       406.211574702
        99          198.000000         0.040561580       218.945615633      -254.501236222      -254.387474993       414.087398837
       100          200.000000         0.039306819       212.172599263      -254.498854700      -254.386359137       415.157792778
       101          202.000000         0.041465376       223.824178741      -254.502140168      -254.387490747       429.857591704
       102          204.000000         0.038656307       208.661228865      -254.498780922      -254.386940235       422.940107056
       103          206.000000         0.035481695       191.525125531      -254.495089045      -254.386420208       425.716431633
       104          208.000000         0.037193700       200.766280284      -254.497695701      -254.387320309       407.368356590
       105          210.000000         0.036735874       198.295001937      -254.496146802      -254.386245889       408.712276035
       106          212.000000         0.042340405       228.547461684      -254.502764360      -254.387279809       408.891550416
       107          214.000000         0.045066657       243.263382174      -254.505496449      -254.387300361       410.802952074
       108          216.000000         0.044232501       238.760724379      -254.503964399      -254.386607639       429.638507451
       109          218.000000         0.044987839       242.837933576      -254.505780338      -254.387673144       407.948035930
       110          220.000000         0.039139171       211.267658500      -254.498781496      -254.386529660       376.902634483
       111          222.000000         0.037168056       200.627861973      -254.497139779      -254.386865373       427.794332444
       112          224.000000         0.037120979       200.373742720      -254.497268339      -254.387047991       427.070816544
       113          226.000000         0.037890588       204.527983984      -254.497304732      -254.386321864       413.306416069
       114          228.000000         0.043636173       235.541831664      -254.504269026      -254.387548972       427.390635477
       115          230.000000         0.043547128       235.061181896      -254.503365673      -254.386740932       423.826206360
       116          232.000000         0.043860108       236.750602896      -254.503932105      -254.386997063       429.587114031
       117          234.000000         0.042308065       228.372892689      -254.502719823      -254.387340421       413.445868072
       118          236.000000         0.037831299       204.207950850      -254.497044179      -254.386149058       410.720149584
       119          238.000000         0.039982944       215.822224469      -254.500181384      -254.387151912       405.545541026
       120          240.000000         0.041486582       223.938646686      -254.501187649      -254.386681861       404.330641418
       121          242.000000         0.045798947       247.216179695      -254.505664286      -254.386876764       396.779841388
       122          244.000000         0.048750695       263.149293372      -254.509474585      -254.387762380       496.834036970
       123          246.000000         0.043673795       235.744912526      -254.503154447      -254.386536479       495.265024144
       124          248.000000         0.039520096       213.323835859      -254.499646902      -254.387193730       493.799535682
       125          250.000000         0.033687098       181.838147742      -254.493170415      -254.386560301       448.779917010
       126          252.000000         0.033248740       179.471949730      -254.492463052      -254.386299904       521.098839181
       127          254.000000         0.038329525       206.897302187      -254.498653346      -254.387415264       521.795094457
       128          256.000000         0.040272121       217.383159714      -254.499686037      -254.386508020       515.847294792
       129          258.000000         0.043096244       232.627369699      -254.503466147      -254.387469683       511.669888583
       130          260.000000         0.039694514       214.265319333      -254.499609140      -254.387026924       518.503510753
       131          262.000000         0.035284601       190.461241086      -254.494445717      -254.386291030       513.339507990
       132          264.000000         0.035350571       190.817335246      -254.495518409      -254.387317569       433.205154855
       133          266.000000         0.033487758       180.762139153      -254.492592472      -254.386267192       381.566642042
       134          268.000000         0.035755766       193.004522066      -254.495610923      -254.387019171       381.702496033
       135          270.000000         0.037353850       201.630751635      -254.497194947      -254.387002081       398.121528775
       136          272.000000         0.038663488       208.699988842      -254.497796873      -254.386297328       397.588012377
       137          274.000000         0.043359603       234.048944073      -254.503685897      -254.387505611       397.983521712
       138          276.000000         0.043260329       233.513077004      -254.502694324      -254.386636288       378.805929010
       139          278.000000         0.042512767       229.477845827      -254.502493278      -254.387210687       381.805385596
       140          280.000000         0.038464971       207.628421430      -254.498258190      -254.387053165       379.147579603
       141          282.000000         0.034135519       184.258658187      -254.492860906      -254.386007076       381.493446415
       142          284.000000         0.037970216       204.957806431      -254.497845821      -254.387172187       380.401845051
       143          286.000000         0.041620509       224.661568018      -254.500970134      -254.386663301       346.711959539
       144          288.000000         0.044941427       242.587407735      -254.504845695      -254.387239545       380.570588584
       145          290.000000         0.044010910       237.564608283      -254.503970496      -254.387312411       397.206517696
       146          292.000000         0.038525614       207.955761969      -254.497520900      -254.386354559       416.877148692
       147          294.000000         0.036973570       199.578050104      -254.496512850      -254.386901329       398.931432647
       148          296.000000         0.037956240       204.882363610      -254.496945114      -254.386353760       397.476725596
       149          298.000000         0.043278355       233.610379944      -254.502983215      -254.387070873       380.483595484
       150          300.000000         0.046447722       250.718170152      -254.506493545      -254.387416012       397.298599521
       151          302.000000         0.043753842       236.176989939      -254.502912279      -254.386539753       398.048800253
       152          304.000000         0.042401975       228.879807908      -254.502091007      -254.387087263       380.994190237
       153          306.000000         0.040896218       220.751947314      -254.499842816      -254.386362313       346.808288988
       154          308.000000         0.043677827       235.766675527      -254.503103926      -254.386859924       380.971756781
       155          310.000000         0.046872473       253.010916208      -254.506797926      -254.387378298       380.535413989
       156          312.000000         0.044543987       240.442083609      -254.503714474      -254.386635854       380.202248183
       157          314.000000         0.042388608       228.807652228      -254.502058633      -254.387143137       379.884438075
       158          316.000000         0.039091239       211.008926379      -254.498098856      -254.386487906       364.077636300
       159          318.000000         0.039292581       212.095741755      -254.498549407      -254.386741617       380.914265920
       160          320.000000         0.041347010       223.185254411      -254.501170466      -254.387311601       380.724277571
       161          322.000000         0.038887119       209.907117480      -254.497987364      -254.386594737       379.221648835
       162          324.000000         0.037651756       203.238804094      -254.497154800      -254.387011085       363.467698463
       163          326.000000         0.036187166       195.333155119      -254.495284426      -254.386622400       363.748406329
       164          328.000000         0.037138969       200.470854742      -254.496163746      -254.386565392       344.999874270
       165          330.000000         0.041662094       224.886037851      -254.501280895      -254.387177485       380.967605022
       166          332.000000         0.042722053       230.607540867      -254.501930219      -254.386789334       415.993408725
       167          334.000000         0.042967315       231.931434461      -254.502404547      -254.387043815       397.385028845
       168          336.000000         0.041346265       223.181237285      -254.500592238      -254.386877980       380.289965859
       169          338.000000         0.039578677       213.640045282      -254.498430280      -254.386503357       398.869220164
       170          340.000000         0.041779524       225.519906146      -254.501124391      -254.387007343       397.132985377
       171          342.000000         0.042301698       228.338528137      -254.501574992      -254.386937626       397.499827866
       172          344.000000         0.040904029       220.794107464      -254.500434605      -254.387197089       379.776797500
       173          346.000000         0.035759041       193.022199799      -254.495045184      -254.386965083       346.739394276
       174          348.000000         0.030502757       164.649527080      -254.489005915      -254.386203995       380.410040826
       175          350.000000         0.034219156       184.710118924      -254.493009206      -254.386516009       380.825937742
       176          352.000000         0.043297665       233.714613004      -254.502418155      -254.386864576       396.234027092
       177          354.000000         0.052488814       283.327123817      -254.512166002      -254.387427046       381.376305298
       178          356.000000         0.054219729       292.670355840      -254.513987244      -254.387515290       380.861593728
       179          358.000000         0.047198183       254.769055137      -254.506306810      -254.386853614       398.583835455
       180          360.000000         0.039737967       214.499871621      -254.498607868      -254.386617125       397.901473296
       181          362.000000         0.035481307       191.523028119      -254.494222605      -254.386492192       396.952579198
       182          364.000000         0.036875719       199.049868330      -254.495916623      -254.386787904       414.477223541
       183          366.000000         0.039331438       212.305488637      -254.498738349      -254.387142194       379.277621034
       184          368.000000         0.038961207       210.307032963      -254.498003397      -254.386769307       398.395775606
       185          370.000000         0.039105104       211.083770639      -254.498239732      -254.386868297       381.255801576
       186          372.000000         0.039069325       210.890639100      -254.497977745      -254.386661313       397.575469606
       187          374.000000         0.042311900       228.393596723      -254.501349686      -254.386819122       414.318387217
       188          376.000000         0.044925555       242.501733671      -254.504593906      -254.387488443       398.057906626
       189          378.000000         0.040922440       220.893487729      -254.499859379      -254.386799906       398.486355972
       190          380.000000         0.036253236       195.689793519      -254.495228307      -254.386879046       398.068870894
       191          382.000000         0.031166314       168.231312103      -254.489936723      -254.386710635       363.788558519
       192          384.000000         0.030806129       166.287085940      -254.488931206      -254.386092505       379.441249692
       193          386.000000         0.037809591       204.090774556      -254.497141059      -254.387317340       379.706801786
       194          388.000000         0.041846681       225.882408902      -254.500679895      -254.386836200       379.703807550
       195          390.000000         0.044373327       239.520883041      -254.503435841      -254.387093679       380.313686218
       196          392.000000         0.042802782       231.043306215      -254.502054881      -254.387324740       381.135460584
       197          394.000000         0.037894844       204.550957973      -254.496016666      -254.386238647       398.041050971
       198          396.000000         0.038146837       205.911177963      -254.497007368      -254.387019512       379.451083153
       199          398.000000         0.038866795       209.797412933      -254.497389982      -254.386721727       362.194123864
       200          400.000000         0.040085864       216.377772221      -254.498645944      -254.386793478       362.132468775
       201          402.000000         0.040830500       220.397208659      -254.499833427      -254.387266011       378.716722284
       202          404.000000         0.038635504       208.548933869      -254.496771399      -254.386427475       378.621593206
       203          406.000000         0.038987035       210.446448015      -254.497557247      -254.386896750       378.975289156
       204          408.000000         0.040115067       216.535405319      -254.498425085      -254.386676815       363.770850102
       205          410.000000         0.042250265       228.060896953      -254.500625739      -254.386784233       363.694338663
       206          412.000000         0.044000036       237.505913511      -254.502827562      -254.387281993       399.053741185
       207          414.000000         0.042880196       231.461174881      -254.500738899      -254.386358277       381.388841645
       208          416.000000         0.045175129       243.848897277      -254.503571809      -254.386936439       398.414144657
       209          418.000000         0.048066290       259.454970403      -254.506291762      -254.386802233       398.539614691
       210          420.000000         0.049919679       269.459297631      -254.508239710      -254.386933836       416.958571289
       211          422.000000         0.049116451       265.123589824      -254.507865335      -254.387399848       433.907521924
       212          424.000000         0.042987774       232.041864942      -254.500738189      -254.386430803       415.884081046
       213          426.000000         0.039158054       211.369584146      -254.497224591      -254.386766256       416.013600095
       214          428.000000         0.037939055       204.789600855      -254.495735153      -254.386511272       398.660137936
       215          430.000000         0.039839972       215.050481590      -254.497684821      -254.386576372       379.804895848
       216          432.000000         0.043871656       236.812933245      -254.502402934      -254.387282244       362.897058703
       217          434.000000         0.043627290       235.493884216      -254.501513327      -254.386658833       381.185057327
       218          436.000000         0.042954983       231.864867535      -254.501107633      -254.386950127       379.818913884
       219          438.000000         0.041290685       222.881219864      -254.499239638      -254.386771360       398.894166013
       220          440.000000         0.039709679       214.347179807      -254.497340486      -254.386472703       381.152999483
       221          442.000000         0.041042009       221.538903311      -254.499451375      -254.387267950       381.749848654
       222          444.000000         0.038633411       208.537638835      -254.496430480      -254.386673424       381.269382801
       223          446.000000         0.036533833       197.204417258      -254.494446737      -254.386809288       381.334024576
       224          448.000000         0.035756377       193.007816625      -254.493512491      -254.386678517       399.114264042
       225          450.000000         0.037219546       200.905796129      -254.494593656      -254.386335463       400.094979221
       226          452.000000         0.043631011       235.513968363      -254.501946959      -254.387331433       385.516624040
       227          454.000000         0.045217466       244.077424200      -254.503063755      -254.386914110       385.247394969