#     Step Nr.          Time[fs]        Kin.[a.u.]          Temp[K]            Pot.[a.u.]        Cons Qty[a.u.]        UsedTime[s]
         0            0.000000         0.070303301       400.000000000      -180.682744721      -180.542138120         0.000000000
         1            1.000000         0.065216559       371.058305928      -180.677330663      -180.541799798      1550.238051077
         2            2.000000         0.054067585       307.624730485      -180.665661199      -180.541270144       503.918790425
         3            3.000000         0.044245909       251.742997368      -180.655639189      -180.541064270       568.984951681
         4            4.000000         0.038975390       221.755677493      -180.650547776      -180.541242488       507.424415626
         5            5.000000         0.036041704       205.064080942      -180.647869509      -180.541501518       570.282298848
         6            6.000000         0.031838120       181.147228848      -180.643728072      -180.541570152       558.702840210
         7            7.000000         0.025960940       147.708226007      -180.637512081      -180.541237976       601.536296049
         8            8.000000         0.023320031       132.682422575      -180.634481987      -180.540853208       506.668073736
         9            9.000000         0.028340588       161.247554563      -180.639848979      -180.541201214       500.063130145
        10           10.000000         0.036413443       207.179136534      -180.648567037      -180.541845829       499.967132236
        11           11.000000         0.038967928       221.713218508      -180.651189975      -180.541912107       533.508303983
        12           12.000000         0.034460367       196.066854075      -180.646243291      -180.541469470       530.766877118
        13           13.000000         0.028661258       163.072050454      -180.640049737      -180.541070722       475.181610945
        14           14.000000         0.027156580       154.510980072      -180.638566288      -180.541087822       468.626385392
        15           15.000000         0.030007439       170.731325053      -180.641714034      -180.541381925       592.393877005
        16           16.000000         0.033093290       188.288683785      -180.645071713      -180.541653203       608.840074466
        17           17.000000         0.032692350       186.007481495      -180.644647099      -180.541631081       614.229133900
        18           18.000000         0.029805734       169.583696097      -180.641304836      -180.541177917       622.865276343
        19           19.000000         0.030542903       173.777919876      -180.641793089      -180.540931349       540.310504579
        20           20.000000         0.037518714       213.467721623      -180.649299389      -180.541463987       561.352796916
        21           21.000000         0.044076132       250.777028571      -180.656334042      -180.541943521       589.782706748
        22           22.000000         0.043582456       247.968193142      -180.655669414      -180.541774993       585.661894135
        23           23.000000         0.037748864       214.777192682      -180.649348896      -180.541290524       589.165377364
        24           24.000000         0.033112868       188.400078086      -180.644449391      -180.541029595       497.825571203
        25           25.000000         0.033464666       190.401680512      -180.644952002      -180.541183134       508.103345932
        26           26.000000         0.036865664       209.752106637      -180.648676634      -180.541509482       621.514989364
        27           27.000000         0.038635645       219.822653943      -180.650656110      -180.541721167       557.806078737
        28           28.000000         0.036088527       205.330487136      -180.647937069      -180.541549880       563.301193433
        29           29.000000         0.032187178       183.133240771      -180.643548455      -180.541060605       593.187006987
        30           30.000000         0.033085157       188.242413116      -180.644452362      -180.541061690       503.042183016
        31           31.000000         0.038506379       219.087174289      -180.650471259      -180.541652620       503.818812602
        32           32.000000         0.041042480       233.516658398      -180.653250219      -180.541887907       569.954155706
        33           33.000000         0.037095164       211.057879835      -180.648966164      -180.541543318       542.020519284
        34           34.000000         0.030956901       176.133417335      -180.642385138      -180.541092605       544.368299343
        35           35.000000         0.028832175       164.044503092      -180.640166756      -180.540990901       506.366511585
        36           36.000000         0.032348986       184.053869703      -180.643948824      -180.541248018       499.990529340
        37           37.000000         0.037963503       215.998408556      -180.649902324      -180.541578987       590.388746652
        38           38.000000         0.040909581       232.760515069      -180.652993888      -180.541716809       617.640891021
        39           39.000000         0.039701432       225.886586780      -180.651507591      -180.541431334       616.925024092
        40           40.000000         0.038575024       219.477741478      -180.649980689      -180.541023828       588.434423324
        41           41.000000         0.042298676       240.663954791      -180.653968552      -180.541281651       528.989592660
        42           42.000000         0.047570422       270.658258143      -180.659802962      -180.541838863       555.012892163
        43           43.000000         0.047207337       268.592439168      -180.659460264      -180.541854568       590.208175406
        44           44.000000         0.040451148       230.152200269      -180.652270726      -180.541417062       538.737615722
        45           45.000000         0.033065925       188.132985525      -180.644512814      -180.541041005       623.580537079
        46           46.000000         0.030367121       172.777782922      -180.641827273      -180.541052419       532.695923091
        47           47.000000         0.032415751       184.433738004      -180.644166171      -180.541343238       566.722472037
        48           48.000000         0.035105348       199.736554992      -180.647137461      -180.541628456       613.012257336
        49           49.000000         0.034476598       196.159198502      -180.646509648      -180.541635484       612.886988838
        50           50.000000         0.031022164       176.504736726      -180.642635458      -180.541222856       618.850753659
        51           51.000000         0.030348153       172.669859611      -180.641685537      -180.540953289       588.418424125
        52           52.000000         0.035425880       201.560268746      -180.647211581      -180.541406008       588.243978573
        53           53.000000         0.040654144       231.307172169      -180.652890128      -180.541858366       618.203775278
        54           54.000000         0.039893542       226.979626507      -180.651990693      -180.541719321       616.252967918
        55           55.000000         0.034468118       196.110953560      -180.646134634      -180.541286757       619.584837972
        56           56.000000         0.030203660       171.847749516      -180.641629539      -180.541043511       496.601334309
        57           57.000000         0.030630620       174.276996531      -180.642186292      -180.541171082       496.324332786
        58           58.000000         0.034111573       194.082339573      -180.645980462      -180.541483193       527.177357353
        59           59.000000         0.036171761       205.804055255      -180.648271061      -180.541713729       619.397789987
        60           60.000000         0.033840463       192.539824506      -180.645812811      -180.541587493       617.237781909
        61           61.000000         0.029569884       168.241794167      -180.641040725      -180.541086307       590.384967834
        62           62.000000         0.029866939       169.931928826      -180.641229790      -180.540977752       530.561632295
        63           63.000000         0.035801711       203.698608310      -180.647729554      -180.541541543       528.588012710
        64           64.000000         0.040421345       229.982631603      -180.652652995      -180.541843740       559.785600012
        65           65.000000         0.039285523       223.520221103      -180.651240903      -180.541565144       561.282718638
        66           66.000000         0.035638670       202.770964466      -180.647190816      -180.541158457       525.966475321
        67           67.000000         0.035047974       199.410117602      -180.646494487      -180.541048115       467.277444379
        68           68.000000         0.039233135       223.222151076      -180.650910258      -180.541273072       525.457394594
        69           69.000000         0.045050866       256.322904698      -180.657070607      -180.541609926       587.403727787
        70           70.000000         0.047606364       270.862754793      -180.659828684      -180.541807617       622.102693606
        71           71.000000         0.044521739       253.312366829      -180.656529310      -180.541589384       654.764412123
        72           72.000000         0.039333070       223.790745905      -180.650853478      -180.541100021       591.756752162
        73           73.000000         0.038122498       216.903035002      -180.649701411      -180.541157252       512.530070836
        74           74.000000         0.040198835       228.716627858      -180.652282697      -180.541661602       540.799871566
        75           75.000000         0.039349310       223.883145718      -180.651510258      -180.541738550       538.555352367
        76           76.000000         0.034050142       193.732821541      -180.645836335      -180.541363980       509.360982399
        77           77.000000         0.029037798       165.214422285      -180.640489028      -180.541029622       520.627177934
        78           78.000000         0.028991584       164.951481956      -180.640452982      -180.541041055       521.133610323
        79           79.000000         0.033916144       192.970424259      -180.645657171      -180.541322865       550.959783291
        80           80.000000         0.039767204       226.260805776      -180.651822654      -180.541640520       583.369503032
        81           81.000000         0.041995815       238.940788588      -180.654154864      -180.541748075       644.263479033
        82           82.000000         0.039549932       225.024612111      -180.651401493      -180.541444402       642.978421772
        83           83.000000         0.036721359       208.931069463      -180.648223779      -180.541098075       544.788896292
        84           84.000000         0.037563499       213.722533917      -180.649324679      -180.541358456       673.594631919
        85           85.000000         0.039002874       221.912053143      -180.651152565      -180.541747883       582.443076444
        86           86.000000         0.036079135       205.277046154      -180.648108552      -180.541628519       615.965761373
        87           87.000000         0.029947824       170.392134921      -180.641572109      -180.541224997       515.829702419
        88           88.000000         0.025962695       147.718216239      -180.637362644      -180.541003617       518.418807792
        89           89.000000         0.027336194       155.532919927      -180.638853920      -180.541126190       518.960945565
        90           90.000000         0.032468736       184.735202059      -180.644278972      -180.541425747       548.986207566
        91           91.000000         0.037000510       210.519331996      -180.649048651      -180.541673265       644.696756437
        92           92.000000         0.037513921       213.440451253      -180.649516330      -180.541639668       611.915018850
        93           93.000000         0.034878280       198.444623829      -180.646504060      -180.541277215       581.714965906
        94           94.000000         0.033765299       192.112171773      -180.645233392      -180.541135029       580.323829120
        95           95.000000         0.035763979       203.483924907      -180.647573852      -180.541492687       552.170027421
        96           96.000000         0.036641404       208.476149433      -180.648631178      -180.541687377       581.344528334
        97           97.000000         0.033684772       191.654001872      -180.645419730      -180.541444568       580.735731197
        98           98.000000         0.029805815       169.584155397      -180.641211493      -180.541123610       554.767201869
        99           99.000000         0.029359793       167.046456011      -180.640703398      -180.541066676       549.204769742
       100          100.000000         0.033272944       189.310848409      -180.644822390      -180.541276265       618.653972040
       101          101.000000         0.038614492       219.702301318      -180.650428282      -180.541545416       617.194219691
       102          102.000000         0.041477444       235.991448759      -180.653410915      -180.541672994       652.998440523
       103          103.000000         0.040315802       229.382126980      -180.652053671      -180.541489023       646.967295225
       104          104.000000         0.037977164       216.076137307      -180.649353552      -180.541142092       648.315181708
       105          105.000000         0.038744089       220.439655963      -180.650174190      -180.541211790       653.083254172
       106          106.000000         0.041700049       237.257986110      -180.653506467      -180.541603915       622.328241142
       107          107.000000         0.042024037       239.101360338      -180.653871348      -180.541658662       620.977957328
       108          108.000000         0.038692050       220.143577124      -180.650230389      -180.541359898       615.969429348
       109          109.000000         0.035506828       202.020830637      -180.646790755      -180.541111083       556.827738183
       110          110.000000         0.035913067       204.332179692      -180.647244224      -180.541159403       532.699175895
       111          111.000000         0.039346879       223.869311179      -180.650934312      -180.541413429       588.940204586
       112          112.000000         0.042183904       240.010943938      -180.654014860      -180.541653227       622.492899126
       113          113.000000         0.041036530       233.482809564      -180.652900860      -180.541683140       629.636016906
       114          114.000000         0.035933846       204.450405108      -180.647497538      -180.541380171       618.577541490
       115          115.000000         0.031265673       177.890214013      -180.642524042      -180.541073744       555.425828417
       116          116.000000         0.030795349       175.214245128      -180.642262358      -180.541282625       559.795753207
       117          117.000000         0.032101001       182.642926421      -180.643883816      -180.541600422       524.678350289
       118          118.000000         0.031124798       177.088689584      -180.642800174      -180.541496726       529.057465295
       119          119.000000         0.028825726       164.007813230      -180.640177029      -180.541177288       527.919852008
       120          120.000000         0.029329466       166.873908542      -180.640550049      -180.541050585       528.968367142
       101          101.000000         0.038611999       219.688117442      -180.650428295      -180.541515268      1625.866185459
       102          102.000000         0.041472702       235.964467007      -180.653411186      -180.541642871       614.201353213
       103          103.000000         0.040308816       229.342380982      -180.652054165      -180.541458896       629.100983482
       104          104.000000         0.037967881       216.023321638      -180.649354275      -180.541111875       733.981361731
       105          105.000000         0.038733800       220.381115989      -180.650176539      -180.541181597       743.937526255
       106          106.000000         0.041690459       237.203424650      -180.653511871      -180.541573875       722.084558308
       107          107.000000         0.042014986       239.049864764      -180.653879061      -180.541628634       719.221358421
       108          108.000000         0.038681863       220.085617804      -180.650238639      -180.541329785       708.523563668
       109          109.000000         0.035493864       201.947073196      -180.646798366      -180.541080891       640.734038313
       110          110.000000         0.035896817       204.239725324      -180.647251250      -180.541129129       613.355372879
       111          111.000000         0.039328683       223.765781903      -180.650942446      -180.541383135       681.788258194
       112          112.000000         0.042166144       239.909898778      -180.654026542      -180.541623088       715.558198099
       113          113.000000         0.041019875       233.388047493      -180.652916532      -180.541653237       697.569847262
       114          114.000000         0.035916136       204.349643335      -180.647514534      -180.541350162       725.395108110
       115          115.000000         0.031246532       177.781308469      -180.642541634      -180.541043340       648.480188316
       116          116.000000         0.030779400       175.123500421      -180.642285399      -180.541252437       649.043699692
       117          117.000000         0.032091158       182.586919595      -180.643914702      -180.541570674       574.052030094
       118          118.000000         0.031117679       177.048180279      -180.642834526      -180.541466960       503.550753112
       119          119.000000         0.028815617       163.950291493      -180.640209067      -180.541147316       506.531337049
       120          120.000000         0.029312232       166.775853106      -180.640576319      -180.541020390       510.067204449
       121          121.000000         0.034383810       195.631269794      -180.645833579      -180.541205509       502.733211873
       122          122.000000         0.041476520       235.986188280      -180.653238747      -180.541513953       561.020337962
       123          123.000000         0.046104439       262.317353996      -180.658078888      -180.541719593       593.125083540
       124          124.000000         0.045438543       258.528648897      -180.657343254      -180.541642143       620.547673319
       125          125.000000         0.040974737       233.131230335      -180.652522253      -180.541277348       619.172375139
       126          126.000000         0.037625017       214.072551149      -180.649010573      -180.541109106       537.921179359
       127          127.000000         0.037446182       213.055046306      -180.649133340      -180.541407167       501.953016838
       128          128.000000         0.036958142       210.278275970      -180.648828953      -180.541590821       594.740491402
       129          129.000000         0.033651776       191.466263899      -180.645306277      -180.541377378       530.685122080
       130          130.000000         0.030065668       171.062624382      -180.641421980      -180.541083256       469.049047874
       131          131.000000         0.030140058       171.485878223      -180.641449351      -180.541039836       467.950978668
       132          132.000000         0.034544607       196.546147736      -180.646074040      -180.541262129       536.150503712
       133          133.000000         0.040148204       228.428559583      -180.651955356      -180.541540476       623.821481552
       134          134.000000         0.042894132       244.051883719      -180.654836545      -180.541675042       624.291169422
       131          131.000000         0.030139576       171.483133723      -180.641449386      -180.541009644       757.680125411
       132          132.000000         0.034543616       196.540509000      -180.646074118      -180.541231940       284.321987133
       133          133.000000         0.040146819       228.420678311      -180.651955575      -180.541510293       332.251286820
       134          134.000000         0.042892527       244.042751929      -180.654836994      -180.541644870       330.248350673
       135          135.000000         0.041080703       233.734136512      -180.652869371      -180.541486254       330.375577517
       136          136.000000         0.037279833       212.108577040      -180.648734139      -180.541146401       331.626978978
       137          137.000000         0.035880341       204.145985206      -180.647345373      -180.541148951       311.742911849
       138          138.000000         0.036847930       209.651207161      -180.648666482      -180.541493462       279.286831891
       139          139.000000         0.036019587       204.938241483      -180.647913240      -180.541561257       296.556905196
       140          140.000000         0.032262994       183.564603858      -180.643877749      -180.541278413       298.954460010
       141          141.000000         0.029139290       165.791876713      -180.640500176      -180.541024263       298.748266556
       142          142.000000         0.030128713       171.421325907      -180.641522187      -180.541059393       279.581091781
       143          143.000000         0.034841681       198.236388436      -180.646480609      -180.541308732       283.598118420
       144          144.000000         0.039730822       226.053809760      -180.651611120      -180.541553844       299.958571352
       145          145.000000         0.041271324       234.818700629      -180.653210693      -180.541615211       301.429142630
       146          146.000000         0.038923016       221.457690283      -180.650628360      -180.541380920       297.341698475
       141          141.000000         0.029139269       165.791752904      -180.640500136      -180.541057307       825.535148176
       142          142.000000         0.030128561       171.420465196      -180.641522077      -180.541092436       279.376241478
       143          143.000000         0.034841371       198.234621704      -180.646480460      -180.541341785       279.054227839
       144          144.000000         0.039730414       226.051488121      -180.651611002      -180.541586911       295.413627324
       145          145.000000         0.041270871       234.816123644      -180.653210641      -180.541648286       295.825343689
       146          146.000000         0.038922433       221.454372061      -180.650628284      -180.541413992       294.687478177
       147          147.000000         0.036152571       205.694871318      -180.647577549      -180.541129835       295.379786468
       148          148.000000         0.036469143       207.496051124      -180.648049301      -180.541280108       295.218057476
       149          149.000000         0.038094253       216.742328603      -180.649986908      -180.541588307       279.380653674
       150          150.000000         0.037167994       211.472257149      -180.649003489      -180.541528641       314.597285886
       151          151.000000         0.034151191       194.307750610      -180.645689006      -180.541229509       311.256761503
       152          152.000000         0.032898357       187.179585358      -180.644284361      -180.541075373       263.434152705
       153          153.000000         0.035561215       202.330270651      -180.647089047      -180.541212151       263.273947752
       154          154.000000         0.040308064       229.338102453      -180.652112459      -180.541480298       279.189981694
       155          155.000000         0.043282264       246.260210851      -180.655285260      -180.541667967       311.705267405
       156          156.000000         0.041878002       238.270472677      -180.653843480      -180.541618391       311.079022187
       157          157.000000         0.037179695       211.538831586      -180.648841317      -180.541302229       311.377161689
       158          158.000000         0.033588349       191.105389233      -180.645059768      -180.541100055       263.542162230
       159          159.000000         0.033607940       191.216856837      -180.645324624      -180.541334810       278.789628308
       160          160.000000         0.034499267       196.288176477      -180.646438236      -180.541549399       279.300530935
       161          161.000000         0.033389052       189.971463256      -180.645200186      -180.541417224       279.497139713
       162          162.000000         0.031662009       180.145220088      -180.643243594      -180.541186231       263.166148725
       163          163.000000         0.032278636       183.653604531      -180.643837133      -180.541163522       310.543992574
       164          164.000000         0.035581625       202.446398086      -180.647332956      -180.541357317       295.577918819
       165          165.000000         0.038878559       221.204745325      -180.650839958      -180.541567992       295.364660234
       166          166.000000         0.039073637       222.314667132      -180.651112056      -180.541644691       311.169456865
       167          167.000000         0.035214745       200.358983654      -180.647099364      -180.541489022       310.645768402
       168          168.000000         0.029877064       169.989539776      -180.641431867      -180.541155213       295.062895288
       169          169.000000         0.027513832       156.543612024      -180.638996472      -180.541077432       294.846260959
       170          170.000000         0.029117802       165.669614124      -180.640878965      -180.541350685       295.229043907
       171          171.000000         0.031411309       178.718827056      -180.643289649      -180.541465007       295.228960266
       172          172.000000         0.032640471       185.712311165      -180.644352915      -180.541299300       310.942662375
       173          173.000000         0.034660013       197.202763841      -180.646222808      -180.541151982       311.099273733
       174          174.000000         0.039348161       223.876604386      -180.650983838      -180.541227655       311.174194819
       175          175.000000         0.045690464       259.961984885      -180.657536142      -180.541439429       312.418612512
       176          176.000000         0.050643171       288.141071615      -180.662663072      -180.541613854       311.097484278
       177          177.000000         0.051601864       293.595685445      -180.663661854      -180.541652811       311.023234226
       178          178.000000         0.048253355       274.543894331      -180.660131849      -180.541469172       310.777969438
       179          179.000000         0.043449942       247.214235833      -180.655056164      -180.541194003       310.444209045
       180          180.000000         0.040699904       231.567526622      -180.652356176      -180.541241135       311.525150124
       181          181.000000         0.039549119       225.019981597      -180.651442685      -180.541476577       310.372578344
       182          182.000000         0.037126929       211.238610663      -180.649009057      -180.541464891       295.274203102
       183          183.000000         0.033308432       189.512761574      -180.644984376      -180.541259894       262.694628978
       184          184.000000         0.030645381       174.360978497      -180.642204209      -180.541145105       263.204797187
       185          185.000000         0.030744995       174.927746860      -180.642377998      -180.541222599       294.988307445
       186          186.000000         0.032640317       185.711432984      -180.644421097      -180.541374707       294.271910464
       187          187.000000         0.034128963       194.181286416      -180.646015549      -180.541485815       310.135343698
       188          188.000000         0.033595725       191.147352729      -180.645478539      -180.541487642       310.543586184
       189          189.000000         0.031357626       178.413391224      -180.643044976      -180.541296509       311.108899870
       190          190.000000         0.030151100       171.548700331      -180.641666340      -180.541125985       263.562487799
       191          191.000000         0.031957296       181.825296063      -180.643646051      -180.541298322       278.640986455
       192          192.000000         0.034714135       197.510699983      -180.646611080      -180.541503950       278.780522480
       193          193.000000         0.035697592       203.106207781      -180.647530865      -180.541437886       279.556935622
       194          194.000000         0.035406372       201.449271122      -180.647078245      -180.541275365       279.274082220
       195          195.000000         0.035880982       204.149629083      -180.647518385      -180.541241677       263.675980764
       196          196.000000         0.037677259       214.369786245      -180.649406330      -180.541336260       294.841191424
       197          197.000000         0.039543211       224.986372450      -180.651375366      -180.541444342       278.665174378